# vtk DataFile Version 3.0
vtk output
ASCII
DATASET POLYDATA
POINTS 7 float
1 0 0 1 1 0 0 1 0 
0 0 1 1 0 1 1 1 1 
0 1 1 
VERTICES 2 9
3 0 1 2 
4 3 4 5 6 

POINT_DATA 7
SCALARS Cluster%20ID unsigned_int
LOOKUP_TABLE default
0 0 0 1 1 1 1 
FIELD FieldData 3
Point%20ID 1 7 unsigned_int
1 2 3 4 5 6 7 
Point%20Scale 1 7 float
1 1 1 1 1 1 1 
Point%20Label 1 7 string
P2
P3
P4
P5
P6
P7
P8

