# vtk DataFile Version 3.0
vtk output
ASCII
DATASET POLYDATA
POINTS 213 float
0.2082 -0.999676 0.779084 0.999999 -0.9999 -0.324576 0.999981 -0.554861 0.311277 
0.60939 -0.431367 0.53729 -0.767433 0.788036 0.11094 -0.999983 0.55189 0.0985926 
-0.778886 0.998872 -0.171723 0.113211 -0.999922 0.084029 0.55558 -0.999134 -0.556934 
0.580686 -0.877401 -0.429183 0.999992 -0.55679 0.333247 -0.777707 0.777849 -0.108614 
-0.777763 0.777792 -0.110801 -0.546076 -0.786357 -0.333677 0.999868 0.541149 0.782011 
0.393204 -0.828884 0.276604 0.835075 -0.112706 0.718178 0.883893 -0.893866 -0.111111 
0.969046 -0.113441 0.80906 1 -0.999999 -0.328373 0.989865 -0.565741 0.333341 
0.333333 -0.999988 -0.999994 0.999252 -0.778529 -0.333334 0.611048 -0.995915 -0.504108 
0.845048 -0.710833 -0.111256 -0.111111 0.99993 0.999971 -0.773247 0.557749 0.494927 
0.327994 -0.982602 0.795182 0.997577 -0.111087 -0.335723 -0.33381 -0.777272 1 
0.77709 -0.556038 0.332726 0.555913 -0.778591 0.999001 0.768856 -0.778132 0.999552 
-0.777894 0.999863 -0.550236 -0.117763 0.783481 0.99772 0.564914 -0.778923 0.998796 
0.778643 0.110983 0.776984 0.337508 -0.998279 -0.787009 0.556241 -0.778348 0.9988 
0.432545 -0.640418 0.92125 0.11091 -0.99471 0.781786 0.110848 -0.995701 0.781352 
0.328448 -0.552682 0.999903 -0.108588 -0.780578 0.774988 0.332992 -0.989418 0.789005 
0.315564 -0.977312 0.800483 0.535732 -0.62906 0.926263 0.544965 -0.772263 0.782311 
0.549723 -0.777898 0.997682 0.555617 -0.777787 0.999978 1 0.336619 0.99671 
0.777359 -0.555557 0.333318 1 -1 0.33327 1 -0.777779 0.55555 
0.110275 -0.785607 0.76895 0.78436 -0.771279 -0.111307 0.131498 -0.992079 0.563427 
0.555425 -0.781606 -0.254014 0.202519 -0.777282 0.0809004 0.33343 -0.999769 0.98985 
0.55563 -0.777784 0.999976 0.999976 0.777815 0.555565 0.333333 1 1 
-0.774751 0.566432 0.505578 -1 0.111111 -0.776437 -0.111111 1 1 
-0.333017 1 0.031612 -0.695337 0.559948 0.426827 -0.780273 0.557683 0.773149 
-0.993587 0.558491 0.558946 -0.578924 0.555913 0.532043 0.211534 -0.77678 0.0728545 
-0.99937 0.555915 -0.778022 -0.348494 0.55525 -1 -0.555454 0.999824 -0.333447 
-0.556654 0.555749 0.552681 -0.844744 0.722589 0.594366 -0.570374 0.555147 0.540053 
-0.643727 0.692838 0.123216 0.333333 1 1 -0.557026 0.552403 0.549448 
-0.780405 0.328978 0.553613 -0.999531 0.333346 0.556504 -0.868513 0.610977 0.380871 
-0.111138 0.779141 0.998324 -0.513734 0.932614 -0.108123 -0.560352 0.995207 -0.111899 
-0.333309 0.999959 -0.340329 -0.999982 0.0848969 0.333269 0.999516 0.0944079 -0.333817 
-0.712714 0.552812 0.403283 0.122988 -0.999342 0.778462 -0.111106 -0.999998 0.555655 
-0.556255 -0.776976 0.777853 -0.116144 -0.675605 0.852962 0.999712 -0.999472 0.108022 
1 -0.333184 0.321133 -0.383218 -0.712218 0.14506 0.0516167 -0.772354 -0.21999 
1 0.999663 0.555556 0.0238019 -0.637928 0.541858 0.374931 -0.556407 0.138113 
0.294351 -0.121601 0.999977 0.762886 -0.36435 0.333188 0.777649 -0.261676 0.129648 
-0.712714 0.552812 0.403283 -0.111111 0.866212 0.949607 -0.111109 0.83234 0.953139 
-0.586014 0.554763 0.525113 -0.990048 0.562015 0.528392 -1 -0.111001 -0.338118 
-0.111112 0.999785 0.999956 -0.995433 0.557803 0.556854 -0.999988 0.555556 -0.77779 
-0.782865 0.344904 -0.773199 -0.999618 0.555907 0.113208 -0.111112 0.999785 0.999956 
-0.11111 0.999924 0.999995 0.555034 -0.779901 -0.554104 0.55928 -0.102478 -0.774372 
-0.352837 -0.758987 0.164197 -0.775404 -0.335389 0.334793 -0.178033 -0.999991 0.490024 
-0.558029 -0.775535 0.777543 -0.371031 -0.739935 0.555601 0.996756 -0.555562 -0.558789 
0.999998 -0.110927 -0.314814 -0.531809 -0.578202 0.777915 1 -0.112884 -0.332553 
-0.555374 0.778091 -0.999687 -0.999987 0.554778 -0.133485 0.778876 -0.0562219 -0.332606 
-0.113675 -0.638189 -0.526417 -0.568623 -0.986353 0.111091 -0.557679 -0.775382 -0.110344 
-0.768515 -0.787041 0.555517 0.107285 -0.999273 -0.0963992 0.913248 -0.111211 -0.424382 
0.556575 -0.555183 -0.99999 -1 0.332847 -0.544913 -0.555556 1 -1 
-0.115758 -0.648709 -0.679647 0.333333 -0.999517 -0.99759 0.994145 -1 -0.339188 
0.328973 -0.143427 -1 0.333333 -0.999988 -0.999994 0.555559 -0.555622 -1 
-0.55617 -0.999385 -0.111094 -0.546076 -0.786357 -0.333677 0.333333 -0.999988 -0.999994 
-0.546076 -0.786357 -0.333677 -1 0.555218 0.111058 -0.777652 0.554437 -0.765911 
-0.338208 -0.555615 0.774503 -0.777732 0.112823 0.555126 0.994122 -0.106963 -0.338613 
0.333333 -0.779359 -0.776284 -0.552582 -0.780109 -0.138699 -0.761462 -0.794044 0.333631 
0.330394 -0.163893 -1 0.333333 -0.999988 -0.999994 -1 0.333341 -0.492363 
0.778401 -0.777624 0.99922 0.776429 -0.778097 0.998189 0.776429 -0.778097 0.998189 
-0.141433 -0.776469 0.555661 0.776429 -0.778097 0.998189 -0.966551 0.58769 0.556802 
-0.782196 0.784273 0.766251 -0.977234 0.579405 0.552276 -0.556035 -0.999511 -0.111714 
-0.115249 -0.685849 -0.641627 -0.110312 -0.999999 0.5578 0.141676 -0.742445 0.554422 
-0.296618 -0.999798 0.373091 -0.562044 -0.99339 0.111051 -0.556402 -0.999152 -0.079703 
-0.546076 -0.786357 -0.333677 -0.556164 -0.999391 -0.111065 0.789143 -0.108631 -0.32098 
0.557374 -0.351391 0.540705 -0.993865 0.557084 0.545835 -0.0959578 -0.716744 -0.386927 
-0.359088 -0.755351 -0.109537 -0.771863 -0.341724 0.332584 0.415955 -0.550543 0.780633 
-0.569925 -0.985511 0.111103 0.372462 -0.106342 -0.960926 0.552803 -0.099355 -0.984417 
-0.546076 -0.786357 -0.333677 -0.202839 -0.917809 0.294389 0.778329 0.999446 0.333351 
-0.546076 -0.786357 -0.333677 0.777804 -0.343945 0.334955 -0.546076 -0.786357 -0.333677 
-0.999784 -0.111136 -0.331407 0.111592 -0.833387 -0.731863 0.333655 -0.917686 -0.415727 
-0.12501 0.188415 -0.777705 -0.12288 -0.687925 -0.609182 0.995699 -0.111073 0.77924 
0.568333 -0.799342 -0.526778 0.55928 -0.102478 -0.774372 -0.333369 0.99967 -0.99915 
-0.555548 0.778024 -0.999753 0.999323 0.114192 -0.552769 0.55563 -0.777784 0.999976 
0.777304 0.112654 0.777401 -0.111168 -0.999997 0.555816 -0.333573 -0.555438 0.777529 
0.549775 -0.777531 0.999807 -0.600587 -0.288156 0.479179 0.334356 -1 0.999645 

VERTICES 21 234
52 170 172 173 174 175 176 0 183 184 186 190 195 212 27 206 28 208 13 211 31 32 35 38 39 40 41 43 44 45 47 48 49 210 54 56 59 60 64 91 92 97 100 110 120 121 122 133 134 139 148 157 161 
3 177 178 189 
7 204 14 36 50 61 74 99 
2 52 53 
2 62 79 
1 42 
45 169 25 26 181 4 5 6 11 12 33 63 65 66 67 68 69 70 75 77 78 80 81 82 83 84 85 86 87 88 90 94 105 106 107 108 109 111 112 115 116 117 124 130 151 154 
3 76 167 168 
1 34 
1 46 
65 23 171 179 180 182 187 188 191 193 3 196 197 7 8 199 201 202 207 30 15 37 51 55 57 58 17 71 72 73 89 93 95 98 101 102 103 104 113 114 118 119 123 127 129 131 132 135 136 137 141 142 144 145 146 209 149 152 153 155 156 158 159 160 21 165 
1 185 
1 29 
3 22 1 19 
2 10 18 
11 24 2 9 198 200 203 16 96 126 128 140 
3 125 138 143 
1 20 
4 192 194 147 150 
4 162 163 164 166 
1 205 

CELL_DATA 21
FIELD FieldData 2
Cluster%20Scale 1 21 float
1 1 1 1 1 1 1 1 1 
1 1 1 1 1 1 1 1 1 
1 1 1 
Cluster%20Color 3 21 unsigned_char
0 0 255 12 0 242 25 0 229 
38 0 216 51 0 204 63 0 191 
76 0 178 89 0 165 102 0 153 
114 0 140 127 0 127 140 0 114 
153 0 102 165 0 89 178 0 76 
191 0 63 204 0 51 216 0 38 
229 0 25 242 0 12 255 0 0 

POINT_DATA 213
SCALARS Cluster%20ID unsigned_int
LOOKUP_TABLE default
1 14 16 11 7 7 7 11 11 
16 15 7 7 1 3 11 16 11 
15 14 18 11 14 11 16 7 7 
1 1 13 11 1 1 7 9 1 
3 11 1 1 1 1 6 1 1 
1 10 1 1 1 3 11 4 4 
1 11 1 11 11 1 1 3 5 
7 1 7 7 7 7 7 7 11 
11 11 3 7 8 7 7 5 7 
7 7 7 7 7 7 7 7 11 
7 1 1 11 7 11 16 1 11 
3 1 11 11 11 11 7 7 7 
7 7 1 7 7 11 11 7 7 
7 11 11 1 1 1 11 7 17 
16 11 16 11 7 11 11 1 1 
11 11 11 17 1 16 11 11 17 
11 11 11 19 1 11 19 7 11 
11 7 11 11 1 11 11 11 1 
20 20 20 11 20 8 8 7 1 
11 1 1 1 1 1 2 2 11 
11 7 11 1 1 12 1 11 11 
2 1 11 19 11 19 1 11 11 
16 11 16 11 11 16 3 21 1 
11 1 11 1 1 1 
FIELD FieldData 3
Point%20ID 1 213 unsigned_int
11 174 176 180 240 241 244 261 263 
264 284 335 342 356 398 527 679 702 
713 753 887 957 1030 1031 1032 1049 1140 
3024 3283 3301 3776 5558 5943 6054 6115 6212 
6228 6276 6278 6328 6332 6340 6342 6343 6344 
6346 6348 6358 6365 6366 6375 6386 6409 6422 
6555 6560 6563 6568 6569 6574 6575 6587 6944 
7002 7044 7047 7150 7237 7238 7239 7247 7288 
7298 7301 7362 7366 7368 7406 7410 7416 7463 
7500 7503 7505 7515 7519 7583 7674 7705 7766 
7809 7839 7840 7852 7854 7858 7865 7892 7895 
7903 7907 7909 7912 7914 7915 7929 7936 7937 
7947 7961 7962 7963 7964 7966 7967 7969 7970 
7975 7991 7997 8003 8004 8005 8007 8008 8019 
8020 8021 8025 8028 8030 8038 8051 8057 8058 
8060 8063 8071 8076 8078 8083 8093 8103 8105 
8114 8129 8133 8140 8141 8174 8182 8404 8452 
8471 8680 8857 8892 8900 8902 8909 8914 9253 
9386 9387 9553 9609 9639 9805 9906 10008 10027 
10405 10899 10907 10962 10977 10992 11006 11007 11124 
11251 11575 11583 11594 11597 12232 12335 12348 12375 
12391 12732 13387 14257 15413 15600 16628 20083 22386 
27867 31246 31254 31260 31272 31275 31347 31357 31373 
31374 33643 81531 638186 5326161 23424235 
Cluster%20Scale 1 213 float
1 1 1 1 1 1 1 1 1 
1 1 1 1 1 1 1 1 1 
1 1 1 1 1 1 1 1 1 
1 1 1 1 1 1 1 1 1 
1 1 1 1 1 1 1 1 1 
1 1 1 1 1 1 1 1 1 
1 1 1 1 1 1 1 1 1 
1 1 1 1 1 1 1 1 1 
1 1 1 1 1 1 1 1 1 
1 1 1 1 1 1 1 1 1 
1 1 1 1 1 1 1 1 1 
1 1 1 1 1 1 1 1 1 
1 1 1 1 1 1 1 1 1 
1 1 1 1 1 1 1 1 1 
1 1 1 1 1 1 1 1 1 
1 1 1 1 1 1 1 1 1 
1 1 1 1 1 1 1 1 1 
1 1 1 1 1 1 1 1 1 
1 1 1 1 1 1 1 1 1 
1 1 1 1 1 1 1 1 1 
1 1 1 1 1 1 1 1 1 
1 1 1 1 1 1 1 1 1 
1 1 1 1 1 1 1 1 1 
1 1 1 1 1 1 
Cluster%20Color 3 213 unsigned_char
0 0 255 165 0 89 191 0 63 
127 0 127 76 0 178 76 0 178 
76 0 178 127 0 127 127 0 127 
191 0 63 178 0 76 76 0 178 
76 0 178 0 0 255 25 0 229 
127 0 127 191 0 63 127 0 127 
178 0 76 165 0 89 216 0 38 
127 0 127 165 0 89 127 0 127 
191 0 63 76 0 178 76 0 178 
0 0 255 0 0 255 153 0 102 
127 0 127 0 0 255 0 0 255 
76 0 178 102 0 153 0 0 255 
25 0 229 127 0 127 0 0 255 
0 0 255 0 0 255 0 0 255 
63 0 191 0 0 255 0 0 255 
0 0 255 114 0 140 0 0 255 
0 0 255 0 0 255 25 0 229 
127 0 127 38 0 216 38 0 216 
0 0 255 127 0 127 0 0 255 
127 0 127 127 0 127 0 0 255 
0 0 255 25 0 229 51 0 204 
76 0 178 0 0 255 76 0 178 
76 0 178 76 0 178 76 0 178 
76 0 178 76 0 178 127 0 127 
127 0 127 127 0 127 25 0 229 
76 0 178 89 0 165 76 0 178 
76 0 178 51 0 204 76 0 178 
76 0 178 76 0 178 76 0 178 
76 0 178 76 0 178 76 0 178 
76 0 178 76 0 178 127 0 127 
76 0 178 0 0 255 0 0 255 
127 0 127 76 0 178 127 0 127 
191 0 63 0 0 255 127 0 127 
25 0 229 0 0 255 127 0 127 
127 0 127 127 0 127 127 0 127 
76 0 178 76 0 178 76 0 178 
76 0 178 76 0 178 0 0 255 
76 0 178 76 0 178 127 0 127 
127 0 127 76 0 178 76 0 178 
76 0 178 127 0 127 127 0 127 
0 0 255 0 0 255 0 0 255 
127 0 127 76 0 178 204 0 51 
191 0 63 127 0 127 191 0 63 
127 0 127 76 0 178 127 0 127 
127 0 127 0 0 255 0 0 255 
127 0 127 127 0 127 127 0 127 
204 0 51 0 0 255 191 0 63 
127 0 127 127 0 127 204 0 51 
127 0 127 127 0 127 127 0 127 
229 0 25 0 0 255 127 0 127 
229 0 25 76 0 178 127 0 127 
127 0 127 76 0 178 127 0 127 
127 0 127 0 0 255 127 0 127 
127 0 127 127 0 127 0 0 255 
242 0 12 242 0 12 242 0 12 
127 0 127 242 0 12 89 0 165 
89 0 165 76 0 178 0 0 255 
127 0 127 0 0 255 0 0 255 
0 0 255 0 0 255 0 0 255 
12 0 242 12 0 242 127 0 127 
127 0 127 76 0 178 127 0 127 
0 0 255 0 0 255 140 0 114 
0 0 255 127 0 127 127 0 127 
12 0 242 0 0 255 127 0 127 
229 0 25 127 0 127 229 0 25 
0 0 255 127 0 127 127 0 127 
191 0 63 127 0 127 191 0 63 
127 0 127 127 0 127 191 0 63 
25 0 229 255 0 0 0 0 255 
127 0 127 0 0 255 127 0 127 
0 0 255 0 0 255 0 0 255 

